# LAMMPS data file 

331 atoms
56 bonds
11 angles
0 dihedrals

5 atom types
5 bond types
8 angle types
14 dihedral types

-100.0 100.0 xlo xhi
-20.0 20.0 ylo yhi
-20.0 20.0 zlo zhi

Atoms

1 1 1 2.091258 -615.2444021752266 -8.066625649546829 0.0 
2 1 1 1.397527 -604.9693121752266 1.177624350453172 0.0 
3 1 1 2.005423 -590.9144221752266 -0.8062156495468282 0.0 
4 1 1 3.464943 -591.8905021752265 -5.825895649546829 0.0 
5 1 4 4.150005 -604.6002521752266 -0.2556356495468282 0.0 
6 1 2 0.0 -604.6002521752266 -0.2556356495468282 0.0 
7 1 3 1.62711 -608.4473921752266 11.515104350453171 0.0 
8 1 1 1.446241 -629.1291421752265 -6.590485649546828 0.0 
9 1 2 3.489514 -616.4456121752265 -5.009155649546829 0.0 
10 1 3 1.966102 -612.0795321752265 -18.65472564954683 0.0 
11 1 2 1.936339 -583.8909221752266 11.344884350453173 0.0 
12 1 3 1.4739 -585.2089121752266 -8.794755649546829 0.0 
13 1 3 1.047926 -579.4714721752266 11.619374350453171 0.0 
14 1 3 4.105864 -604.0968521752266 10.827474350453173 0.0 
15 1 2 2.118127 -638.5757821752265 -14.72903564954683 0.0 
16 1 3 1.537803 -632.5237221752266 3.9554943504531717 0.0 
17 1 3 0.349187 -628.6817321752266 -8.636225649546828 0.0 
18 1 1 1.438811 -640.3347121752265 -26.96874564954683 0.0 
19 1 3 1.294792 -630.7034721752266 -32.35290564954683 0.0 
20 1 3 0.471426 -645.5886921752266 -25.407685649546828 0.0 
21 1 3 2.061444 -646.7571621752265 -33.53250564954683 0.0 
22 1 2 4.19569 -580.1885721752266 -2.567185649546828 0.0 
23 1 3 3.462503 -593.7526521752266 -16.87292564954683 0.0 
24 1 1 4.059991 -570.4979121752266 -12.749275649546828 0.0 
25 1 3 4.602721 -561.3557421752266 -9.617645649546828 0.0 
26 1 3 2.997476 -567.5882221752265 -14.264865649546827 0.0 
27 1 5 4.525268 -573.9708121752266 -22.23923564954683 0.0 
28 1 3 -0.225488 -601.5937821752266 -9.198045649546827 0.0 
29 1 3 1.369628 -511.47212217522656 -12.17391564954683 0.0 
30 1 1 1.606339 -560.0486621752266 -18.49201564954683 0.0 
31 1 3 1.901862 -562.2286221752265 2.589144350453172 0.0 
32 1 2 2.219944 -572.2935921752265 -21.38004564954683 0.0 
33 1 3 1.823724 -552.8402221752266 -26.670365649546827 0.0 
34 1 3 0.513948 -561.6845921752266 -17.68497564954683 0.0 
35 1 3 1.818441 -575.4567121752266 -29.89316564954683 0.0 
36 1 3 3.923756 -521.3896121752266 0.45787435045317176 0.0 
37 1 1 4.177393 -513.8433921752265 -23.502625649546825 0.0 
38 1 3 3.158694 -511.1839321752266 -27.004585649546826 0.0 
39 1 3 4.858251 -512.5234221752265 -32.156625649546825 0.0 
40 1 3 4.53779 -506.8630521752266 -15.620785649546828 0.0 
41 1 3 3.798075 -542.6115521752266 10.34151435045317 0.0 
42 1 2 0.0 -542.4002521752266 -0.2556356495468282 0.0 
43 1 2 4.240611 -527.3594621752266 -19.448805649546827 0.0 
44 1 1 1.43126 -541.2079221752266 -0.8355856495468281 0.0 
45 1 1 2.144187 -554.6330321752266 -5.170015649546828 0.0 
46 1 1 2.055895 -529.3989521752266 -8.652255649546829 0.0 
47 1 3 1.704499 -539.1761121752265 9.720754350453172 0.0 
48 1 1 3.615908 -529.2214321752266 -6.871935649546829 0.0 
49 1 2 3.578204 -553.8203721752266 -6.510225649546829 0.0 
50 1 1 4.134289 -542.4002521752266 -0.2556356495468282 0.0 
51 1 2 1.524454 -517.1713121752266 -4.192875649546829 0.0 
52 1 3 1.817514 -531.1155421752266 -19.39006564954683 0.0 
53 1 3 0.62627 -394.6209821752266 -16.49953564954683 0.0 
54 1 3 0.762972 -393.9120321752266 1.6808543504531717 0.0 
55 1 1 1.475686 -371.7819521752266 -11.151715649546828 0.0 
56 1 3 0.668866 -370.3736321752266 -3.6107156495468278 0.0 
57 1 3 1.065374 -371.6697821752266 -21.488385649546828 0.0 
58 1 3 2.159384 -363.1015521752266 -10.163785649546828 0.0 
59 1 2 1.931971 -432.41354217522655 11.916954350453173 0.0 
60 1 3 1.54353 -441.8187421752266 -6.048745649546829 0.0 
61 1 3 1.095382 -437.09122217522656 14.517604350453173 0.0 
62 1 2 4.191771 -442.60775217522655 -2.551245649546828 0.0 
63 1 3 3.450122 -429.64145217522656 -17.53217564954683 0.0 
64 1 1 4.318693 -452.00238217522656 -13.11671564954683 0.0 
65 1 1 4.170399 -466.3462121752266 -7.844635649546829 0.0 
66 1 3 5.317873 -450.7199721752266 -17.80073564954683 0.0 
67 1 3 3.542657 -450.8932021752266 -21.06653564954683 0.0 
68 1 1 5.198826 -469.50492217522657 3.0430943504531722 0.0 
69 1 3 5.10364 -480.10923217522657 6.187144350453171 0.0 
70 1 3 5.030869 -463.1215821752266 11.95083435045317 0.0 
71 1 3 6.229791 -467.8792121752266 -0.7598356495468281 0.0 
72 1 2 2.861565 -468.0120921752266 -2.642275649546828 0.0 
73 1 3 4.375291 -472.9915621752266 -16.607385649546828 0.0 
74 1 2 3.092057 -407.9165421752266 2.112714350453172 0.0 
75 1 1 2.329807 -480.5449221752266 -6.369125649546829 0.0 
76 1 3 1.334444 -481.70505217522657 -1.6116856495468281 0.0 
77 1 3 2.966242 -488.9049021752266 -2.702525649546828 0.0 
78 1 3 2.177175 -481.12713217522656 -17.374835649546828 0.0 
79 1 3 2.664587 -407.57465217522656 -18.000885649546827 0.0 
80 1 3 4.837542 -414.4693221752266 -7.7331156495468285 0.0 
81 1 1 1.327271 -394.49261217522655 -7.904085649546829 0.0 
82 1 2 0.0 -418.0002521752266 -0.2556356495468282 0.0 
83 1 2 2.215375 -383.57035217522656 -8.857555649546828 0.0 
84 1 1 1.182932 -420.28966217522657 -7.9108556495468285 0.0 
85 1 1 1.983458 -432.34275217522656 -2.134745649546828 0.0 
86 1 1 3.459466 -431.0951121752266 -6.444345649546828 0.0 
87 1 1 4.091378 -418.0002521752266 -0.2556356495468282 0.0 
88 1 1 2.116725 -407.6287421752266 -8.266995649546828 0.0 
89 1 3 0.930238 -422.06592217522655 -18.607425649546826 0.0 
90 1 1 2.091258 -282.9561021752266 7.555354350453172 0.0 
91 1 1 1.397527 -293.2311921752266 -1.6888956495468284 0.0 
92 1 1 2.005423 -307.2860821752266 0.29494435045317186 0.0 
93 1 1 3.464943 -306.3100021752266 5.314624350453172 0.0 
94 1 1 4.150005 -293.6002521752266 -0.2556356495468282 0.0 
95 1 2 0.0 -293.6002521752266 -0.2556356495468282 0.0 
96 1 3 1.62711 -289.7531121752266 -12.026375649546829 0.0 
97 1 1 1.446241 -269.07136217522657 6.079214350453171 0.0 
98 1 2 3.489514 -281.7548921752266 4.497884350453171 0.0 
99 1 3 1.966102 -286.12097217522654 18.143454350453172 0.0 
100 1 2 1.936339 -314.3095821752266 -11.85615564954683 0.0 
101 1 3 1.4739 -312.9915921752266 8.283484350453172 0.0 
102 1 3 1.047926 -318.7290321752266 -12.130645649546828 0.0 
103 1 3 1.537803 -265.6767821752266 -4.466765649546828 0.0 
104 1 3 4.105864 -294.10365217522656 -11.33874564954683 0.0 
105 1 3 0.471426 -252.6118121752266 24.89641435045317 0.0 
106 1 3 2.061444 -251.44334217522658 33.02123435045318 0.0 
107 1 2 4.19569 -318.0119321752266 2.055914350453172 0.0 
108 1 3 3.462503 -304.44785217522656 16.361654350453172 0.0 
109 1 1 4.059991 -327.7025921752266 12.23800435045317 0.0 
110 1 3 4.602721 -336.8447621752266 9.106374350453171 0.0 
111 1 3 2.997476 -330.6122821752266 13.75359435045317 0.0 
112 1 3 0.349187 -269.51877217522656 8.124954350453171 0.0 
113 1 1 1.438811 -257.8657921752266 26.45747435045317 0.0 
114 1 3 1.294792 -267.4970321752266 31.841634350453173 0.0 
115 1 2 2.118127 -259.62472217522657 14.217764350453173 0.0 
116 1 3 4.525268 -324.22969217522655 21.727964350453174 0.0 
117 1 3 2.056653 -212.14467217522656 20.241214350453173 0.0 
118 1 3 3.576349 -148.91481217522653 -2.156325649546828 0.0 
119 1 2 0.0 -169.20025217522658 -0.2556356495468282 0.0 
120 1 3 4.768099 -144.58194217522657 14.779904350453172 0.0 
121 1 1 1.414711 -167.29083217522657 -2.5247656495468283 0.0 
122 1 1 3.543915 -156.80220217522663 5.770654350453171 0.0 
123 1 1 2.044204 -159.47745217522657 9.009904350453171 0.0 
124 1 1 4.291426 -169.20025217522658 -0.2556356495468282 0.0 
125 1 1 2.18516 -180.9730021752266 -3.991225649546828 0.0 
126 1 3 1.638966 -161.17347217522655 -11.58198564954683 0.0 
127 1 1 1.456712 -192.4120321752266 3.353004350453172 0.0 
128 1 2 2.103251 -204.74878217522655 0.7405243504531718 0.0 
129 1 2 3.527869 -181.06161217522651 1.1667543504531719 0.0 
130 1 3 0.424279 -193.32435217522658 -0.4708956495468282 0.0 
131 1 3 1.35132 -190.1420021752266 14.221034350453172 0.0 
132 1 3 2.180399 -183.87065217522655 -14.730645649546828 0.0 
133 1 3 3.524831 -202.09223217522657 15.886314350453173 0.0 
134 1 1 2.776618 -209.43866217522657 12.21700435045317 0.0 
135 1 2 1.859338 -166.31933217522658 21.20731435045317 0.0 
136 1 3 1.549052 -149.58514217522657 10.134084350453172 0.0 
137 1 3 2.640831 -172.18257217522654 22.948724350453173 0.0 
138 1 2 4.169872 -152.02212217522657 17.433634350453172 0.0 
139 1 3 4.463207 -167.5042321752266 -11.165925649546828 0.0 
140 1 3 3.333879 -218.63700217522654 9.480104350453171 0.0 
141 1 3 0.62627 -21.420982175226527 -16.49953564954683 0.0 
142 1 3 0.762972 -20.712032175226568 1.6808543504531717 0.0 
143 1 1 1.475686 1.4180478247734527 -11.151715649546828 0.0 
144 1 3 0.668866 2.8263678247733424 -3.6107156495468278 0.0 
145 1 3 1.065374 1.5302178247734446 -21.488385649546828 0.0 
146 1 3 2.159384 10.098447824773416 -10.163785649546828 0.0 
147 1 2 1.931971 -59.21354217522662 11.916954350453173 0.0 
148 1 3 1.54353 -68.6187421752266 -6.048745649546829 0.0 
149 1 3 1.095382 -63.89122217522663 14.517604350453173 0.0 
150 1 2 4.191771 -69.40775217522656 -2.551245649546828 0.0 
151 1 3 3.450122 -56.44145217522657 -17.53217564954683 0.0 
152 1 1 4.318693 -78.80238217522663 -13.11671564954683 0.0 
153 1 1 4.170399 -93.14621217522654 -7.844635649546829 0.0 
154 1 3 5.317873 -77.5199721752266 -17.80073564954683 0.0 
155 1 3 3.542657 -77.69320217522659 -21.06653564954683 0.0 
156 1 1 5.198826 -96.30492217522658 3.0430943504531722 0.0 
157 1 3 5.10364 -106.90923217522658 6.187144350453171 0.0 
158 1 3 5.030869 -89.9215821752266 11.95083435045317 0.0 
159 1 3 6.229791 -94.67921217522655 -0.7598356495468281 0.0 
160 1 2 2.861565 -94.81209217522661 -2.642275649546828 0.0 
161 1 3 4.375291 -99.79156217522655 -16.607385649546828 0.0 
162 1 2 3.092057 -34.71654217522661 2.112714350453172 0.0 
163 1 1 2.329807 -107.34492217522654 -6.369125649546829 0.0 
164 1 3 1.334444 -108.50505217522658 -1.6116856495468281 0.0 
165 1 3 2.966242 -115.70490217522661 -2.702525649546828 0.0 
166 1 3 2.177175 -107.92713217522657 -17.374835649546828 0.0 
167 1 3 2.664587 -34.37465217522657 -18.000885649546827 0.0 
168 1 3 4.837542 -41.26932217522659 -7.7331156495468285 0.0 
169 1 1 1.327271 -21.292612175226623 -7.904085649546829 0.0 
170 1 2 0.0 -44.8002521752266 -0.2556356495468282 0.0 
171 1 2 2.215375 -10.370352175226571 -8.857555649546828 0.0 
172 1 1 1.182932 -47.08966217522658 -7.9108556495468285 0.0 
173 1 1 1.983458 -59.142752175226576 -2.134745649546828 0.0 
174 1 1 3.459466 -57.895112175226586 -6.444345649546828 0.0 
175 1 1 4.091378 -44.8002521752266 -0.2556356495468282 0.0 
176 1 1 2.116725 -34.4287421752266 -8.266995649546828 0.0 
177 1 3 0.930238 -48.865922175226615 -18.607425649546826 0.0 
178 1 3 2.056653 36.655327824773394 20.241214350453173 0.0 
179 1 3 3.576349 99.88518782477342 -2.156325649546828 0.0 
180 1 2 0.0 79.59974782477343 -0.2556356495468282 0.0 
181 1 3 4.768099 104.21805782477338 14.779904350453172 0.0 
182 1 1 1.414711 81.50916782477339 -2.5247656495468283 0.0 
183 1 1 3.543915 91.99779782477333 5.770654350453171 0.0 
184 1 1 2.044204 89.32254782477332 9.009904350453171 0.0 
185 1 1 4.291426 79.59974782477343 -0.2556356495468282 0.0 
186 1 1 2.18516 67.82699782477334 -3.991225649546828 0.0 
187 1 3 1.638966 87.62652782477335 -11.58198564954683 0.0 
188 1 1 1.456712 56.38796782477334 3.353004350453172 0.0 
189 1 2 2.103251 44.0512178247734 0.7405243504531718 0.0 
190 1 2 3.527869 67.73838782477344 1.1667543504531719 0.0 
191 1 3 0.424279 55.47564782477343 -0.4708956495468282 0.0 
192 1 3 1.35132 58.65799782477336 14.221034350453172 0.0 
193 1 3 2.180399 64.92934782477346 -14.730645649546828 0.0 
194 1 3 3.524831 46.70776782477344 15.886314350453173 0.0 
195 1 1 2.776618 39.361337824773386 12.21700435045317 0.0 
196 1 2 1.859338 82.48066782477338 21.20731435045317 0.0 
197 1 3 1.549052 99.21485782477339 10.134084350453172 0.0 
198 1 3 2.640831 76.61742782477336 22.948724350453173 0.0 
199 1 2 4.169872 96.77787782477344 17.433634350453172 0.0 
200 1 3 4.463207 81.2957678247734 -11.165925649546828 0.0 
201 1 3 3.333879 30.162997824773356 9.480104350453171 0.0 
202 1 3 1.369628 234.92787782477353 -12.17391564954683 0.0 
203 1 1 1.606339 186.3513378247734 -18.49201564954683 0.0 
204 1 3 1.901862 184.17137782477334 2.589144350453172 0.0 
205 1 2 2.219944 174.10640782477344 -21.38004564954683 0.0 
206 1 3 1.823724 193.5597778247734 -26.670365649546827 0.0 
207 1 3 0.513948 184.71540782477348 -17.68497564954683 0.0 
208 1 3 1.818441 170.9432878247735 -29.89316564954683 0.0 
209 1 3 3.923756 225.01038782477337 0.45787435045317176 0.0 
210 1 1 4.177393 232.55660782477344 -23.502625649546825 0.0 
211 1 3 3.158694 235.21606782477352 -27.004585649546826 0.0 
212 1 3 4.858251 233.87657782477345 -32.156625649546825 0.0 
213 1 3 4.53779 239.5369478247734 -15.620785649546828 0.0 
214 1 3 3.798075 203.78844782477347 10.34151435045317 0.0 
215 1 2 0.0 203.9997478247734 -0.2556356495468282 0.0 
216 1 2 4.240611 219.04053782477354 -19.448805649546827 0.0 
217 1 1 1.43126 205.19207782477338 -0.8355856495468281 0.0 
218 1 1 2.144187 191.76696782477347 -5.170015649546828 0.0 
219 1 1 2.055895 217.00104782477342 -8.652255649546829 0.0 
220 1 3 1.704499 207.22388782477333 9.720754350453172 0.0 
221 1 1 3.615908 217.17856782477338 -6.871935649546829 0.0 
222 1 2 3.578204 192.57962782477352 -6.510225649546829 0.0 
223 1 1 4.134289 203.9997478247734 -0.2556356495468282 0.0 
224 1 2 1.524454 229.22868782477337 -4.192875649546829 0.0 
225 1 3 1.817514 215.28445782477343 -19.39006564954683 0.0 
226 1 3 2.056653 285.45532782477335 20.241214350453173 0.0 
227 1 3 3.576349 348.6851878247734 -2.156325649546828 0.0 
228 1 2 0.0 328.3997478247734 -0.2556356495468282 0.0 
229 1 3 4.768099 353.01805782477345 14.779904350453172 0.0 
230 1 1 1.414711 330.30916782477345 -2.5247656495468283 0.0 
231 1 1 3.543915 340.7977978247734 5.770654350453171 0.0 
232 1 1 2.044204 338.1225478247734 9.009904350453171 0.0 
233 1 1 4.291426 328.3997478247734 -0.2556356495468282 0.0 
234 1 1 2.18516 316.6269978247735 -3.991225649546828 0.0 
235 1 3 1.638966 336.4265278247734 -11.58198564954683 0.0 
236 1 1 1.456712 305.1879678247734 3.353004350453172 0.0 
237 1 2 2.103251 292.85121782477347 0.7405243504531718 0.0 
238 1 2 3.527869 316.5383878247734 1.1667543504531719 0.0 
239 1 3 0.424279 304.2756478247735 -0.4708956495468282 0.0 
240 1 3 1.35132 307.45799782477343 14.221034350453172 0.0 
241 1 3 2.180399 313.7293478247734 -14.730645649546828 0.0 
242 1 3 3.524831 295.5077678247734 15.886314350453173 0.0 
243 1 1 2.776618 288.16133782477334 12.21700435045317 0.0 
244 1 2 1.859338 331.28066782477345 21.20731435045317 0.0 
245 1 3 1.549052 348.01485782477346 10.134084350453172 0.0 
246 1 3 2.640831 325.4174278247734 22.948724350453173 0.0 
247 1 2 4.169872 345.5778778247735 17.433634350453172 0.0 
248 1 3 4.463207 330.09576782477336 -11.165925649546828 0.0 
249 1 3 3.333879 278.9629978247734 9.480104350453171 0.0 
250 1 1 2.091258 463.44389782477333 7.555354350453172 0.0 
251 1 1 1.397527 453.16880782477347 -1.6888956495468284 0.0 
252 1 1 2.005423 439.11391782477335 0.29494435045317186 0.0 
253 1 1 3.464943 440.08999782477326 5.314624350453172 0.0 
254 1 1 4.150005 452.79974782477336 -0.2556356495468282 0.0 
255 1 2 0.0 452.79974782477336 -0.2556356495468282 0.0 
256 1 3 1.62711 456.64688782477344 -12.026375649546829 0.0 
257 1 1 1.446241 477.3286378247734 6.079214350453171 0.0 
258 1 2 3.489514 464.6451078247733 4.497884350453171 0.0 
259 1 3 1.966102 460.2790278247734 18.143454350453172 0.0 
260 1 2 1.936339 432.09041782477345 -11.85615564954683 0.0 
261 1 3 1.4739 433.40840782477346 8.283484350453172 0.0 
262 1 3 1.047926 427.67096782477336 -12.130645649546828 0.0 
263 1 3 1.537803 480.7232178247734 -4.466765649546828 0.0 
264 1 3 4.105864 452.2963478247733 -11.33874564954683 0.0 
265 1 3 0.471426 493.78818782477333 24.89641435045317 0.0 
266 1 3 2.061444 494.9566578247734 33.02123435045318 0.0 
267 1 2 4.19569 428.3880678247733 2.055914350453172 0.0 
268 1 3 3.462503 441.9521478247734 16.361654350453172 0.0 
269 1 1 4.059991 418.69740782477334 12.23800435045317 0.0 
270 1 3 4.602721 409.5552378247735 9.106374350453171 0.0 
271 1 3 2.997476 415.7877178247734 13.75359435045317 0.0 
272 1 3 0.349187 476.8812278247733 8.124954350453171 0.0 
273 1 1 1.438811 488.5342078247734 26.45747435045317 0.0 
274 1 3 1.294792 478.9029678247733 31.841634350453173 0.0 
275 1 2 2.118127 486.7752778247734 14.217764350453173 0.0 
276 1 3 4.525268 422.1703078247733 21.727964350453174 0.0 
277 1 1 2.091258 587.8438978247734 7.555354350453172 0.0 
278 1 1 1.397527 577.5688078247733 -1.6888956495468284 0.0 
279 1 1 2.005423 563.5139178247734 0.29494435045317186 0.0 
280 1 1 3.464943 564.4899978247734 5.314624350453172 0.0 
281 1 1 4.150005 577.1997478247733 -0.2556356495468282 0.0 
282 1 2 0.0 577.1997478247733 -0.2556356495468282 0.0 
283 1 3 1.62711 581.0468878247734 -12.026375649546829 0.0 
284 1 1 1.446241 601.7286378247734 6.079214350453171 0.0 
285 1 2 3.489514 589.0451078247734 4.497884350453171 0.0 
286 1 3 1.966102 584.6790278247734 18.143454350453172 0.0 
287 1 2 1.936339 556.4904178247734 -11.85615564954683 0.0 
288 1 3 1.4739 557.8084078247734 8.283484350453172 0.0 
289 1 3 1.047926 552.0709678247733 -12.130645649546828 0.0 
290 1 3 1.537803 605.1232178247735 -4.466765649546828 0.0 
291 1 3 4.105864 576.6963478247733 -11.33874564954683 0.0 
292 1 3 0.471426 618.1881878247734 24.89641435045317 0.0 
293 1 3 2.061444 619.3566578247735 33.02123435045318 0.0 
294 1 2 4.19569 552.7880678247734 2.055914350453172 0.0 
295 1 3 3.462503 566.3521478247733 16.361654350453172 0.0 
296 1 1 4.059991 543.0974078247734 12.23800435045317 0.0 
297 1 3 4.602721 533.9552378247733 9.106374350453171 0.0 
298 1 3 2.997476 540.1877178247732 13.75359435045317 0.0 
299 1 3 0.349187 601.2812278247734 8.124954350453171 0.0 
300 1 1 1.438811 612.9342078247735 26.45747435045317 0.0 
301 1 3 1.294792 603.3029678247733 31.841634350453173 0.0 
302 1 2 2.118127 611.1752778247735 14.217764350453173 0.0 
303 1 3 4.525268 546.5703078247734 21.727964350453174 0.0 
304 1 1 2.091258 650.0438978247732 7.555354350453172 0.0 
305 1 1 1.397527 639.7688078247734 -1.6888956495468284 0.0 
306 1 1 2.005423 625.7139178247733 0.29494435045317186 0.0 
307 1 1 3.464943 626.6899978247732 5.314624350453172 0.0 
308 1 4 4.150005 639.3997478247734 -0.2556356495468282 0.0 
309 1 2 0.0 639.3997478247734 -0.2556356495468282 0.0 
310 1 3 1.62711 643.2468878247735 -12.026375649546829 0.0 
311 1 1 1.446241 663.9286378247734 6.079214350453171 0.0 
312 1 2 3.489514 651.2451078247734 4.497884350453171 0.0 
313 1 3 1.966102 646.8790278247734 18.143454350453172 0.0 
314 1 2 1.936339 618.6904178247735 -11.85615564954683 0.0 
315 1 3 1.4739 620.0084078247735 8.283484350453172 0.0 
316 1 3 1.047926 614.2709678247734 -12.130645649546828 0.0 
317 1 3 4.105864 638.8963478247733 -11.33874564954683 0.0 
318 1 2 2.118127 673.3752778247733 14.217764350453173 0.0 
319 1 3 1.537803 667.3232178247733 -4.466765649546828 0.0 
320 1 3 0.349187 663.4812278247734 8.124954350453171 0.0 
321 1 1 1.438811 675.1342078247733 26.45747435045317 0.0 
322 1 3 1.294792 665.5029678247734 31.841634350453173 0.0 
323 1 3 0.471426 680.3881878247732 24.89641435045317 0.0 
324 1 3 2.061444 681.5566578247733 33.02123435045318 0.0 
325 1 2 4.19569 614.9880678247732 2.055914350453172 0.0 
326 1 3 3.462503 628.5521478247733 16.361654350453172 0.0 
327 1 1 4.059991 605.2974078247732 12.23800435045317 0.0 
328 1 3 4.602721 596.1552378247734 9.106374350453171 0.0 
329 1 3 2.997476 602.3877178247733 13.75359435045317 0.0 
330 1 5 4.525268 608.7703078247735 21.727964350453174 0.0 
331 1 3 -0.225488 636.3932778247733 8.68677435045317 0.0 

Bonds

1 1 1 2 
2 1 3 4 
3 1 8 18 
4 1 24 30 
5 1 37 44 
6 1 45 46 
7 1 48 50 
8 1 55 64 
9 1 65 68 
10 1 75 81 
11 1 84 85 
12 1 86 87 
13 1 88 90 
14 1 91 92 
15 1 93 94 
16 1 97 109 
17 1 113 121 
18 1 122 123 
19 1 124 125 
20 1 127 134 
21 1 143 152 
22 1 153 156 
23 1 163 169 
24 1 172 173 
25 1 174 175 
26 1 176 182 
27 1 183 184 
28 1 185 186 
29 1 188 195 
30 1 203 210 
31 1 217 218 
32 1 219 221 
33 1 223 230 
34 1 231 232 
35 1 233 234 
36 1 236 243 
37 1 250 251 
38 1 252 253 
39 1 254 257 
40 1 269 273 
41 1 277 278 
42 1 279 280 
43 1 281 284 
44 1 296 300 
45 1 304 305 
46 1 306 307 
47 1 311 321 
48 4 2 5 
49 3 2 6 
50 3 42 44 
51 3 91 95 
52 3 215 217 
53 3 251 255 
54 3 278 282 
55 4 305 308 
56 3 305 309 

Angles

1 7 1 2 5 
2 3 1 2 6 
3 0 5 2 6 
4 3 37 44 42 
5 3 92 91 95 
6 3 215 217 218 
7 3 250 251 255 
8 3 277 278 282 
9 7 304 305 308 
10 3 304 305 309 
11 0 308 305 309 

Dihedrals

